<?xml version="1.0" encoding="UTF-8"?>

<!-- generated on 2025-09-26 12:56:09 by Eclipse SUMO GUI Version 1.24.0
<sumoConfiguration xmlns:xsi="http://www.w3.org/2001/XMLSchema-instance" xsi:noNamespaceSchemaLocation="http://sumo.dlr.de/xsd/sumoConfiguration.xsd">

    <input>
        <net-file value="grid_tls.net.xml"/>
        <route-files value="grid_tls_routes.rou.xml"/>
    </input>

    <output>
        <fcd-output value="fcd.xml"/>
        <queue-output value="queue.xml"/>
        <tripinfo-output value="tripinfo.xml"/>
    </output>

    <time>
        <begin value="0"/>
        <end value="3600"/>
        <step-length value="1.0"/>
    </time>

    <traci_server>
        <remote-port value="55587"/>
    </traci_server>

    <gui_only>
        <start value="true"/>
    </gui_only>

</sumoConfiguration>
-->

<queue-export xmlns:xsi="http://www.w3.org/2001/XMLSchema-instance" xsi:noNamespaceSchemaLocation="http://sumo.dlr.de/xsd/queue_file.xsd">
    <data timestep="0.00">
        <lanes/>
    </data>
    <data timestep="1.00">
        <lanes/>
    </data>
    <data timestep="2.00">
        <lanes/>
    </data>
    <data timestep="3.00">
        <lanes/>
    </data>
    <data timestep="4.00">
        <lanes/>
    </data>
    <data timestep="5.00">
        <lanes/>
    </data>
    <data timestep="6.00">
        <lanes/>
    </data>
    <data timestep="7.00">
        <lanes/>
    </data>
    <data timestep="8.00">
        <lanes/>
    </data>
    <data timestep="9.00">
        <lanes/>
    </data>
    <data timestep="10.00">
        <lanes/>
    </data>
    <data timestep="11.00">
        <lanes/>
    </data>
    <data timestep="12.00">
        <lanes/>
    </data>
    <data timestep="13.00">
        <lanes/>
    </data>
    <data timestep="14.00">
        <lanes/>
    </data>
    <data timestep="15.00">
        <lanes/>
    </data>
    <data timestep="16.00">
        <lanes/>
    </data>
    <data timestep="17.00">
        <lanes/>
    </data>
    <data timestep="18.00">
        <lanes/>
    </data>
    <data timestep="19.00">
        <lanes/>
    </data>
    <data timestep="20.00">
        <lanes/>
    </data>
    <data timestep="21.00">
        <lanes/>
    </data>
    <data timestep="22.00">
        <lanes/>
    </data>
    <data timestep="23.00">
        <lanes/>
    </data>
    <data timestep="24.00">
        <lanes/>
    </data>
    <data timestep="25.00">
        <lanes/>
    </data>
    <data timestep="26.00">
        <lanes/>
    </data>
    <data timestep="27.00">
        <lanes/>
    </data>
    <data timestep="28.00">
        <lanes/>
    </data>
    <data timestep="29.00">
        <lanes/>
    </data>
    <data timestep="30.00">
        <lanes/>
    </data>
    <data timestep="31.00">
        <lanes/>
    </data>
    <data timestep="32.00">
        <lanes/>
    </data>
    <data timestep="33.00">
        <lanes/>
    </data>
    <data timestep="34.00">
        <lanes>
            <lane id=":E2_4_0" queueing_time="0.00" queueing_length="0.00" queueing_length_experimental="5.16"/>
        </lanes>
    </data>
    <data timestep="35.00">
        <lanes>
            <lane id=":E2_4_0" queueing_time="1.00" queueing_length="5.12" queueing_length_experimental="5.12"/>
        </lanes>
    </data>
    <data timestep="36.00">
        <lanes>
            <lane id=":E2_4_0" queueing_time="2.00" queueing_length="5.10" queueing_length_experimental="5.10"/>
        </lanes>
    </data>
    <data timestep="37.00">
        <lanes>
            <lane id=":E2_4_0" queueing_time="3.00" queueing_length="5.10" queueing_length_experimental="5.10"/>
        </lanes>
    </data>
    <data timestep="38.00">
        <lanes>
            <lane id=":E2_4_0" queueing_time="4.00" queueing_length="5.10" queueing_length_experimental="5.10"/>
        </lanes>
    </data>
    <data timestep="39.00">
        <lanes>
            <lane id=":E2_4_0" queueing_time="5.00" queueing_length="5.10" queueing_length_experimental="5.10"/>
            <lane id="B3C3_0" queueing_time="0.00" queueing_length="0.00" queueing_length_experimental="6.09"/>
        </lanes>
    </data>
    <data timestep="40.00">
        <lanes>
            <lane id=":E2_4_0" queueing_time="6.00" queueing_length="5.10" queueing_length_experimental="5.10"/>
            <lane id="B3C3_0" queueing_time="1.00" queueing_length="6.03" queueing_length_experimental="6.03"/>
        </lanes>
    </data>
    <data timestep="41.00">
        <lanes>
            <lane id="B3C3_0" queueing_time="2.00" queueing_length="6.01" queueing_length_experimental="6.01"/>
        </lanes>
    </data>
    <data timestep="42.00">
        <lanes>
            <lane id="B3C3_0" queueing_time="3.00" queueing_length="6.00" queueing_length_experimental="6.00"/>
            <lane id="D2C2_0" queueing_time="0.00" queueing_length="0.00" queueing_length_experimental="6.66"/>
        </lanes>
    </data>
    <data timestep="43.00">
        <lanes>
            <lane id="B1B0_0" queueing_time="0.00" queueing_length="0.00" queueing_length_experimental="6.01"/>
            <lane id="B3C3_0" queueing_time="4.00" queueing_length="6.00" queueing_length_experimental="6.00"/>
            <lane id="D2C2_0" queueing_time="0.00" queueing_length="0.00" queueing_length_experimental="6.29"/>
        </lanes>
    </data>
    <data timestep="44.00">
        <lanes>
            <lane id="B1B0_0" queueing_time="1.00" queueing_length="6.00" queueing_length_experimental="13.65"/>
            <lane id="B3C3_0" queueing_time="5.00" queueing_length="6.00" queueing_length_experimental="6.00"/>
            <lane id="D2C2_0" queueing_time="0.00" queueing_length="0.00" queueing_length_experimental="6.01"/>
        </lanes>
    </data>
    <data timestep="45.00">
        <lanes>
            <lane id="B1B0_0" queueing_time="1.00" queueing_length="13.56" queueing_length_experimental="13.56"/>
            <lane id="B1B2_0" queueing_time="0.00" queueing_length="0.00" queueing_length_experimental="6.36"/>
            <lane id="D4C4_0" queueing_time="1.00" queueing_length="6.02" queueing_length_experimental="6.02"/>
        </lanes>
    </data>
    <data timestep="46.00">
        <lanes>
            <lane id="B1B2_0" queueing_time="0.00" queueing_length="0.00" queueing_length_experimental="6.13"/>
            <lane id="D4C4_0" queueing_time="2.00" queueing_length="6.01" queueing_length_experimental="14.24"/>
        </lanes>
    </data>
    <data timestep="47.00">
        <lanes>
            <lane id="B1B2_0" queueing_time="1.00" queueing_length="6.05" queueing_length_experimental="6.05"/>
            <lane id="D4C4_0" queueing_time="3.00" queueing_length="6.00" queueing_length_experimental="13.70"/>
        </lanes>
    </data>
    <data timestep="48.00">
        <lanes>
            <lane id="B1B2_0" queueing_time="2.00" queueing_length="6.02" queueing_length_experimental="13.59"/>
            <lane id="D4C4_0" queueing_time="4.00" queueing_length="6.00" queueing_length_experimental="13.57"/>
        </lanes>
    </data>
    <data timestep="49.00">
        <lanes>
            <lane id=":B0_2_0" queueing_time="0.00" queueing_length="0.00" queueing_length_experimental="5.14"/>
            <lane id="A3A2_0" queueing_time="0.00" queueing_length="0.00" queueing_length_experimental="6.08"/>
            <lane id="B1B2_0" queueing_time="3.00" queueing_length="13.54" queueing_length_experimental="13.54"/>
            <lane id="B2B1_0" queueing_time="0.00" queueing_length="0.00" queueing_length_experimental="6.00"/>
            <lane id="D4C4_0" queueing_time="5.00" queueing_length="13.52" queueing_length_experimental="13.52"/>
        </lanes>
    </data>
    <data timestep="50.00">
        <lanes>
            <lane id=":B0_2_0" queueing_time="1.00" queueing_length="5.10" queueing_length_experimental="5.10"/>
            <lane id="A3A2_0" queueing_time="1.00" queueing_length="6.02" queueing_length_experimental="6.02"/>
            <lane id="B1B2_0" queueing_time="4.00" queueing_length="13.52" queueing_length_experimental="13.52"/>
            <lane id="B2B1_0" queueing_time="1.00" queueing_length="6.00" queueing_length_experimental="6.00"/>
            <lane id="B4B3_0" queueing_time="0.00" queueing_length="0.00" queueing_length_experimental="6.17"/>
            <lane id="D4C4_0" queueing_time="6.00" queueing_length="13.50" queueing_length_experimental="13.50"/>
        </lanes>
    </data>
    <data timestep="51.00">
        <lanes>
            <lane id=":B0_2_0" queueing_time="2.00" queueing_length="5.10" queueing_length_experimental="5.10"/>
            <lane id="A3A2_0" queueing_time="2.00" queueing_length="6.00" queueing_length_experimental="6.00"/>
            <lane id="B1B2_0" queueing_time="5.00" queueing_length="13.51" queueing_length_experimental="13.51"/>
            <lane id="B2B1_0" queueing_time="2.00" queueing_length="6.00" queueing_length_experimental="6.00"/>
            <lane id="B3B2_0" queueing_time="0.00" queueing_length="0.00" queueing_length_experimental="6.70"/>
            <lane id="B4B3_0" queueing_time="0.00" queueing_length="0.00" queueing_length_experimental="6.05"/>
            <lane id="D4C4_0" queueing_time="7.00" queueing_length="13.50" queueing_length_experimental="13.50"/>
        </lanes>
    </data>
    <data timestep="52.00">
        <lanes>
            <lane id=":B0_2_0" queueing_time="3.00" queueing_length="5.10" queueing_length_experimental="5.10"/>
            <lane id="A3A2_0" queueing_time="3.00" queueing_length="6.00" queueing_length_experimental="6.00"/>
            <lane id="B1B2_0" queueing_time="6.00" queueing_length="13.50" queueing_length_experimental="13.50"/>
            <lane id="B2B1_0" queueing_time="3.00" queueing_length="6.00" queueing_length_experimental="6.00"/>
            <lane id="B3B2_0" queueing_time="0.00" queueing_length="0.00" queueing_length_experimental="6.10"/>
            <lane id="B4B3_0" queueing_time="1.00" queueing_length="6.00" queueing_length_experimental="6.00"/>
            <lane id="D0D1_0" queueing_time="0.00" queueing_length="0.00" queueing_length_experimental="6.01"/>
            <lane id="D4C4_0" queueing_time="8.00" queueing_length="13.50" queueing_length_experimental="13.50"/>
        </lanes>
    </data>
    <data timestep="53.00">
        <lanes>
            <lane id=":B0_2_0" queueing_time="4.00" queueing_length="5.10" queueing_length_experimental="5.10"/>
            <lane id="A3A2_0" queueing_time="4.00" queueing_length="6.00" queueing_length_experimental="6.00"/>
            <lane id="B1B2_0" queueing_time="7.00" queueing_length="13.50" queueing_length_experimental="13.50"/>
            <lane id="B2B1_0" queueing_time="4.00" queueing_length="6.00" queueing_length_experimental="6.00"/>
            <lane id="B3B2_0" queueing_time="1.00" queueing_length="6.04" queueing_length_experimental="6.04"/>
            <lane id="B4B3_0" queueing_time="2.00" queueing_length="6.00" queueing_length_experimental="6.00"/>
            <lane id="D0D1_0" queueing_time="1.00" queueing_length="6.00" queueing_length_experimental="6.00"/>
            <lane id="D4C4_0" queueing_time="9.00" queueing_length="13.50" queueing_length_experimental="13.50"/>
        </lanes>
    </data>
    <data timestep="54.00">
        <lanes>
            <lane id=":B0_2_0" queueing_time="5.00" queueing_length="5.10" queueing_length_experimental="5.10"/>
            <lane id="A3A2_0" queueing_time="5.00" queueing_length="6.00" queueing_length_experimental="6.00"/>
            <lane id="B1B2_0" queueing_time="8.00" queueing_length="13.50" queueing_length_experimental="13.50"/>
            <lane id="B2B1_0" queueing_time="5.00" queueing_length="6.00" queueing_length_experimental="6.00"/>
            <lane id="B3B2_0" queueing_time="2.00" queueing_length="6.02" queueing_length_experimental="6.02"/>
            <lane id="B4B3_0" queueing_time="3.00" queueing_length="6.00" queueing_length_experimental="6.00"/>
            <lane id="D0D1_0" queueing_time="2.00" queueing_length="6.00" queueing_length_experimental="6.00"/>
            <lane id="D4C4_0" queueing_time="10.00" queueing_length="13.50" queueing_length_experimental="13.50"/>
        </lanes>
    </data>
    <data timestep="55.00">
        <lanes>
            <lane id="A3A2_0" queueing_time="6.00" queueing_length="6.00" queueing_length_experimental="13.65"/>
            <lane id="B1B2_0" queueing_time="9.00" queueing_length="13.50" queueing_length_experimental="13.50"/>
            <lane id="B2B1_0" queueing_time="6.00" queueing_length="6.00" queueing_length_experimental="6.00"/>
            <lane id="B3B2_0" queueing_time="3.00" queueing_length="6.00" queueing_length_experimental="6.00"/>
            <lane id="B4B3_0" queueing_time="4.00" queueing_length="6.00" queueing_length_experimental="6.00"/>
            <lane id="D0D1_0" queueing_time="3.00" queueing_length="6.00" queueing_length_experimental="6.00"/>
            <lane id="D4C4_0" queueing_time="11.00" queueing_length="13.50" queueing_length_experimental="13.50"/>
            <lane id="E4E3_0" queueing_time="0.00" queueing_length="0.00" queueing_length_experimental="6.03"/>
        </lanes>
    </data>
    <data timestep="56.00">
        <lanes>
            <lane id="A3A2_0" queueing_time="7.00" queueing_length="6.00" queueing_length_experimental="13.51"/>
            <lane id="B1B2_0" queueing_time="10.00" queueing_length="13.50" queueing_length_experimental="13.50"/>
            <lane id="B2B1_0" queueing_time="7.00" queueing_length="6.00" queueing_length_experimental="13.72"/>
            <lane id="B3B2_0" queueing_time="4.00" queueing_length="6.00" queueing_length_experimental="6.00"/>
            <lane id="B4B3_0" queueing_time="5.00" queueing_length="6.00" queueing_length_experimental="6.00"/>
            <lane id="C4B4_0" queueing_time="0.00" queueing_length="0.00" queueing_length_experimental="6.03"/>
            <lane id="D0D1_0" queueing_time="4.00" queueing_length="6.00" queueing_length_experimental="6.00"/>
            <lane id="D1D2_0" queueing_time="0.00" queueing_length="0.00" queueing_length_experimental="6.67"/>
            <lane id="D4C4_0" queueing_time="12.00" queueing_length="13.50" queueing_length_experimental="13.50"/>
            <lane id="E4E3_0" queueing_time="1.00" queueing_length="6.01" queueing_length_experimental="6.01"/>
        </lanes>
    </data>
    <data timestep="57.00">
        <lanes>
            <lane id="A3A2_0" queueing_time="8.00" queueing_length="13.50" queueing_length_experimental="21.75"/>
            <lane id="B1B2_0" queueing_time="11.00" queueing_length="13.50" queueing_length_experimental="13.50"/>
            <lane id="B2B1_0" queueing_time="8.00" queueing_length="6.00" queueing_length_experimental="13.56"/>
            <lane id="B3B2_0" queueing_time="5.00" queueing_length="6.00" queueing_length_experimental="6.00"/>
            <lane id="B4B3_0" queueing_time="6.00" queueing_length="6.00" queueing_length_experimental="6.00"/>
            <lane id="C4B4_0" queueing_time="1.00" queueing_length="6.01" queueing_length_experimental="6.01"/>
            <lane id="D0D1_0" queueing_time="5.00" queueing_length="6.00" queueing_length_experimental="6.00"/>
            <lane id="D1D2_0" queueing_time="0.00" queueing_length="0.00" queueing_length_experimental="6.06"/>
            <lane id="D4C4_0" queueing_time="13.00" queueing_length="13.50" queueing_length_experimental="13.50"/>
            <lane id="E4E3_0" queueing_time="2.00" queueing_length="6.00" queueing_length_experimental="6.00"/>
        </lanes>
    </data>
    <data timestep="58.00">
        <lanes>
            <lane id="A3A2_0" queueing_time="9.00" queueing_length="13.50" queueing_length_experimental="21.29"/>
            <lane id="B1B2_0" queueing_time="12.00" queueing_length="13.50" queueing_length_experimental="13.50"/>
            <lane id="B2B1_0" queueing_time="9.00" queueing_length="13.50" queueing_length_experimental="21.34"/>
            <lane id="B3B2_0" queueing_time="6.00" queueing_length="6.00" queueing_length_experimental="6.00"/>
            <lane id="B4B3_0" queueing_time="7.00" queueing_length="6.00" queueing_length_experimental="6.00"/>
            <lane id="C4B4_0" queueing_time="2.00" queueing_length="6.00" queueing_length_experimental="6.00"/>
            <lane id="D0D1_0" queueing_time="6.00" queueing_length="6.00" queueing_length_experimental="6.00"/>
            <lane id="D1D2_0" queueing_time="1.00" queueing_length="6.00" queueing_length_experimental="6.00"/>
            <lane id="D4C4_0" queueing_time="14.00" queueing_length="13.50" queueing_length_experimental="13.50"/>
            <lane id="E4E3_0" queueing_time="3.00" queueing_length="6.00" queueing_length_experimental="6.00"/>
        </lanes>
    </data>
    <data timestep="59.00">
        <lanes>
            <lane id="A3A2_0" queueing_time="10.00" queueing_length="13.50" queueing_length_experimental="21.07"/>
            <lane id="B1B2_0" queueing_time="13.00" queueing_length="13.50" queueing_length_experimental="13.50"/>
            <lane id="B2B1_0" queueing_time="10.00" queueing_length="13.50" queueing_length_experimental="21.13"/>
            <lane id="B3B2_0" queueing_time="7.00" queueing_length="6.00" queueing_length_experimental="6.00"/>
            <lane id="B4B3_0" queueing_time="8.00" queueing_length="6.00" queueing_length_experimental="6.00"/>
            <lane id="C4B4_0" queueing_time="3.00" queueing_length="6.00" queueing_length_experimental="6.00"/>
            <lane id="D0D1_0" queueing_time="7.00" queueing_length="6.00" queueing_length_experimental="6.00"/>
            <lane id="D1D2_0" queueing_time="2.00" queueing_length="6.00" queueing_length_experimental="6.00"/>
            <lane id="D4C4_0" queueing_time="15.00" queueing_length="13.50" queueing_length_experimental="13.50"/>
            <lane id="E4E3_0" queueing_time="4.00" queueing_length="6.00" queueing_length_experimental="6.00"/>
        </lanes>
    </data>
    <data timestep="60.00">
        <lanes>
            <lane id="A2A1_0" queueing_time="0.00" queueing_length="0.00" queueing_length_experimental="6.27"/>
            <lane id="A3A2_0" queueing_time="11.00" queueing_length="21.01" queueing_length_experimental="21.01"/>
            <lane id="B1B2_0" queueing_time="14.00" queueing_length="13.50" queueing_length_experimental="13.50"/>
            <lane id="B2B1_0" queueing_time="11.00" queueing_length="13.50" queueing_length_experimental="21.03"/>
            <lane id="B3B2_0" queueing_time="8.00" queueing_length="6.00" queueing_length_experimental="6.00"/>
            <lane id="B4B3_0" queueing_time="9.00" queueing_length="6.00" queueing_length_experimental="6.00"/>
            <lane id="C4B4_0" queueing_time="4.00" queueing_length="6.00" queueing_length_experimental="6.00"/>
            <lane id="D0D1_0" queueing_time="8.00" queueing_length="6.00" queueing_length_experimental="6.00"/>
            <lane id="D1D2_0" queueing_time="3.00" queueing_length="6.00" queueing_length_experimental="6.00"/>
            <lane id="D4C4_0" queueing_time="16.00" queueing_length="13.50" queueing_length_experimental="13.50"/>
            <lane id="E4E3_0" queueing_time="5.00" queueing_length="6.00" queueing_length_experimental="6.00"/>
        </lanes>
    </data>
    <data timestep="61.00">
        <lanes>
            <lane id="A2A1_0" queueing_time="0.00" queueing_length="0.00" queueing_length_experimental="6.03"/>
            <lane id="A3A2_0" queueing_time="12.00" queueing_length="21.01" queueing_length_experimental="21.01"/>
            <lane id="B1B2_0" queueing_time="15.00" queueing_length="13.50" queueing_length_experimental="13.50"/>
            <lane id="B2B1_0" queueing_time="12.00" queueing_length="21.01" queueing_length_experimental="21.01"/>
            <lane id="B3B2_0" queueing_time="9.00" queueing_length="6.00" queueing_length_experimental="6.00"/>
            <lane id="B4B3_0" queueing_time="10.00" queueing_length="6.00" queueing_length_experimental="6.00"/>
            <lane id="C1C2_0" queueing_time="0.00" queueing_length="0.00" queueing_length_experimental="6.12"/>
            <lane id="C4B4_0" queueing_time="5.00" queueing_length="6.00" queueing_length_experimental="6.00"/>
            <lane id="D0D1_0" queueing_time="9.00" queueing_length="6.00" queueing_length_experimental="6.00"/>
            <lane id="D1D2_0" queueing_time="4.00" queueing_length="6.00" queueing_length_experimental="6.00"/>
            <lane id="D4C4_0" queueing_time="17.00" queueing_length="13.50" queueing_length_experimental="13.50"/>
            <lane id="E4E3_0" queueing_time="6.00" queueing_length="6.00" queueing_length_experimental="6.00"/>
        </lanes>
    </data>
    <data timestep="62.00">
        <lanes>
            <lane id="A2A1_0" queueing_time="1.00" queueing_length="6.01" queueing_length_experimental="6.01"/>
            <lane id="A3A2_0" queueing_time="13.00" queueing_length="21.00" queueing_length_experimental="21.00"/>
            <lane id="B1B2_0" queueing_time="16.00" queueing_length="13.50" queueing_length_experimental="13.50"/>
            <lane id="B2B1_0" queueing_time="13.00" queueing_length="21.00" queueing_length_experimental="21.00"/>
            <lane id="B3B2_0" queueing_time="10.00" queueing_length="6.00" queueing_length_experimental="6.00"/>
            <lane id="B4B3_0" queueing_time="11.00" queueing_length="6.00" queueing_length_experimental="6.00"/>
            <lane id="C1C2_0" queueing_time="1.00" queueing_length="6.02" queueing_length_experimental="6.02"/>
            <lane id="C4B4_0" queueing_time="6.00" queueing_length="6.00" queueing_length_experimental="6.00"/>
            <lane id="D0D1_0" queueing_time="10.00" queueing_length="6.00" queueing_length_experimental="6.00"/>
            <lane id="D1D2_0" queueing_time="5.00" queueing_length="6.00" queueing_length_experimental="6.00"/>
            <lane id="D3D2_0" queueing_time="0.00" queueing_length="0.00" queueing_length_experimental="6.43"/>
            <lane id="D4C4_0" queueing_time="18.00" queueing_length="13.50" queueing_length_experimental="13.50"/>
            <lane id="E4E3_0" queueing_time="7.00" queueing_length="6.00" queueing_length_experimental="13.63"/>
        </lanes>
    </data>
    <data timestep="63.00">
        <lanes>
            <lane id="A0A1_0" queueing_time="0.00" queueing_length="0.00" queueing_length_experimental="6.04"/>
            <lane id="A2A1_0" queueing_time="2.00" queueing_length="6.00" queueing_length_experimental="6.00"/>
            <lane id="A3A2_0" queueing_time="14.00" queueing_length="21.00" queueing_length_experimental="21.00"/>
            <lane id="B1B2_0" queueing_time="17.00" queueing_length="13.50" queueing_length_experimental="13.50"/>
            <lane id="B2B1_0" queueing_time="14.00" queueing_length="21.00" queueing_length_experimental="21.00"/>
            <lane id="B3B2_0" queueing_time="11.00" queueing_length="6.00" queueing_length_experimental="6.00"/>
            <lane id="B4B3_0" queueing_time="12.00" queueing_length="6.00" queueing_length_experimental="6.00"/>
            <lane id="C1C2_0" queueing_time="2.00" queueing_length="6.00" queueing_length_experimental="6.00"/>
            <lane id="C4B4_0" queueing_time="7.00" queueing_length="6.00" queueing_length_experimental="6.00"/>
            <lane id="D0D1_0" queueing_time="11.00" queueing_length="6.00" queueing_length_experimental="6.00"/>
            <lane id="D1D2_0" queueing_time="6.00" queueing_length="6.00" queueing_length_experimental="6.00"/>
            <lane id="D3D2_0" queueing_time="0.00" queueing_length="0.00" queueing_length_experimental="6.12"/>
            <lane id="D4C4_0" queueing_time="19.00" queueing_length="13.50" queueing_length_experimental="13.50"/>
            <lane id="E4E3_0" queueing_time="8.00" queueing_length="6.00" queueing_length_experimental="13.53"/>
        </lanes>
    </data>
    <data timestep="64.00">
        <lanes>
            <lane id="A0A1_0" queueing_time="1.00" queueing_length="6.02" queueing_length_experimental="6.02"/>
            <lane id="A2A1_0" queueing_time="3.00" queueing_length="6.00" queueing_length_experimental="6.00"/>
            <lane id="A3A2_0" queueing_time="15.00" queueing_length="21.00" queueing_length_experimental="21.00"/>
            <lane id="B1B2_0" queueing_time="18.00" queueing_length="13.50" queueing_length_experimental="13.50"/>
            <lane id="B2B1_0" queueing_time="15.00" queueing_length="21.00" queueing_length_experimental="21.00"/>
            <lane id="B3B2_0" queueing_time="12.00" queueing_length="6.00" queueing_length_experimental="6.00"/>
            <lane id="B4B3_0" queueing_time="13.00" queueing_length="6.00" queueing_length_experimental="6.00"/>
            <lane id="C1C2_0" queueing_time="3.00" queueing_length="6.00" queueing_length_experimental="6.00"/>
            <lane id="C4B4_0" queueing_time="8.00" queueing_length="6.00" queueing_length_experimental="6.00"/>
            <lane id="D0D1_0" queueing_time="12.00" queueing_length="6.00" queueing_length_experimental="6.00"/>
            <lane id="D1D2_0" queueing_time="7.00" queueing_length="6.00" queueing_length_experimental="6.00"/>
            <lane id="D3D2_0" queueing_time="1.00" queueing_length="6.04" queueing_length_experimental="6.04"/>
            <lane id="D4C4_0" queueing_time="20.00" queueing_length="13.50" queueing_length_experimental="13.50"/>
            <lane id="E0E1_0" queueing_time="0.00" queueing_length="0.00" queueing_length_experimental="6.29"/>
            <lane id="E4E3_0" queueing_time="9.00" queueing_length="13.51" queueing_length_experimental="13.51"/>
        </lanes>
    </data>
    <data timestep="65.00">
        <lanes>
            <lane id="A0A1_0" queueing_time="2.00" queueing_length="6.01" queueing_length_experimental="13.66"/>
            <lane id="A2A1_0" queueing_time="4.00" queueing_length="6.00" queueing_length_experimental="6.00"/>
            <lane id="A3A2_0" queueing_time="16.00" queueing_length="21.00" queueing_length_experimental="21.00"/>
            <lane id="B1B2_0" queueing_time="19.00" queueing_length="13.50" queueing_length_experimental="13.50"/>
            <lane id="B2B1_0" queueing_time="16.00" queueing_length="21.00" queueing_length_experimental="21.00"/>
            <lane id="B3B2_0" queueing_time="13.00" queueing_length="6.00" queueing_length_experimental="6.00"/>
            <lane id="B4B3_0" queueing_time="14.00" queueing_length="6.00" queueing_length_experimental="6.00"/>
            <lane id="C1C2_0" queueing_time="4.00" queueing_length="6.00" queueing_length_experimental="6.00"/>
            <lane id="C2C3_0" queueing_time="0.00" queueing_length="0.00" queueing_length_experimental="6.43"/>
            <lane id="C4B4_0" queueing_time="9.00" queueing_length="6.00" queueing_length_experimental="6.00"/>
            <lane id="D0D1_0" queueing_time="13.00" queueing_length="6.00" queueing_length_experimental="6.00"/>
            <lane id="D1D2_0" queueing_time="8.00" queueing_length="6.00" queueing_length_experimental="6.00"/>
            <lane id="D3D2_0" queueing_time="2.00" queueing_length="6.01" queueing_length_experimental="6.01"/>
            <lane id="D4C4_0" queueing_time="21.00" queueing_length="13.50" queueing_length_experimental="13.50"/>
            <lane id="E0E1_0" queueing_time="0.00" queueing_length="0.00" queueing_length_experimental="6.02"/>
            <lane id="E4E3_0" queueing_time="10.00" queueing_length="13.50" queueing_length_experimental="13.50"/>
        </lanes>
    </data>
    <data timestep="66.00">
        <lanes>
            <lane id="A0A1_0" queueing_time="3.00" queueing_length="6.00" queueing_length_experimental="13.55"/>
            <lane id="A2A1_0" queueing_time="5.00" queueing_length="6.00" queueing_length_experimental="6.00"/>
            <lane id="A3A2_0" queueing_time="17.00" queueing_length="21.00" queueing_length_experimental="21.00"/>
            <lane id="B1B2_0" queueing_time="20.00" queueing_length="13.50" queueing_length_experimental="13.50"/>
            <lane id="B2B1_0" queueing_time="17.00" queueing_length="21.00" queueing_length_experimental="21.00"/>
            <lane id="B3B2_0" queueing_time="14.00" queueing_length="6.00" queueing_length_experimental="6.00"/>
            <lane id="B4B3_0" queueing_time="15.00" queueing_length="6.00" queueing_length_experimental="6.00"/>
            <lane id="C1C2_0" queueing_time="5.00" queueing_length="6.00" queueing_length_experimental="6.00"/>
            <lane id="C2C3_0" queueing_time="0.00" queueing_length="0.00" queueing_length_experimental="6.19"/>
            <lane id="C4B4_0" queueing_time="10.00" queueing_length="6.00" queueing_length_experimental="6.00"/>
            <lane id="D0D1_0" queueing_time="14.00" queueing_length="6.00" queueing_length_experimental="13.61"/>
            <lane id="D1D2_0" queueing_time="9.00" queueing_length="6.00" queueing_length_experimental="6.00"/>
            <lane id="D3D2_0" queueing_time="3.00" queueing_length="6.00" queueing_length_experimental="6.00"/>
            <lane id="D4C4_0" queueing_time="22.00" queueing_length="13.50" queueing_length_experimental="13.50"/>
            <lane id="E0E1_0" queueing_time="1.00" queueing_length="6.00" queueing_length_experimental="6.00"/>
            <lane id="E4E3_0" queueing_time="11.00" queueing_length="13.50" queueing_length_experimental="13.50"/>
        </lanes>
    </data>
    <data timestep="67.00">
        <lanes>
            <lane id="A0A1_0" queueing_time="4.00" queueing_length="13.51" queueing_length_experimental="13.51"/>
            <lane id="A0B0_0" queueing_time="0.00" queueing_length="0.00" queueing_length_experimental="6.24"/>
            <lane id="A2A1_0" queueing_time="6.00" queueing_length="13.52" queueing_length_experimental="13.52"/>
            <lane id="A3A2_0" queueing_time="18.00" queueing_length="21.00" queueing_length_experimental="21.00"/>