<?xml version="1.0" encoding="UTF-8"?>

<!-- generated on 2025-09-25 21:17:35 by Eclipse SUMO GUI Version 1.24.0
<sumoConfiguration xmlns:xsi="http://www.w3.org/2001/XMLSchema-instance" xsi:noNamespaceSchemaLocation="http://sumo.dlr.de/xsd/sumoConfiguration.xsd">

    <input>
        <net-file value="grid_tls.net.xml"/>
        <route-files value="grid_tls_routes.rou.xml"/>
    </input>

    <output>
        <fcd-output value="fcd.xml"/>
        <queue-output value="queue.xml"/>
        <tripinfo-output value="tripinfo.xml"/>
    </output>

    <time>
        <begin value="0"/>
        <end value="3600"/>
        <step-length value="1.0"/>
    </time>

    <traci_server>
        <remote-port value="55633"/>
    </traci_server>

    <gui_only>
        <start value="true"/>
    </gui_only>

</sumoConfiguration>
-->

<tripinfos xmlns:xsi="http://www.w3.org/2001/XMLSchema-instance" xsi:noNamespaceSchemaLocation="http://sumo.dlr.de/xsd/tripinfo_file.xsd">
    <tripinfo id="13" depart="7.00" departLane="A2B2_0" departPos="5.10" departSpeed="0.00" departDelay="0.50" arrival="37.00" arrivalLane="A2B2_0" arrivalPos="385.60" arrivalSpeed="14.38" duration="30.00" routeLength="380.50" waitingTime="0.00" waitingCount="0" stopTime="0.00" timeLoss="5.17" rerouteNo="1" devices="tripinfo_13 routing_13 fcd_13" vType="DEFAULT_VEHTYPE" speedFactor="1.12" vaporized=""/>
    <tripinfo id="57" depart="29.00" departLane="E2E1_0" departPos="5.10" departSpeed="0.00" departDelay="0.50" arrival="87.00" arrivalLane="E1D1_0" arrivalPos="385.60" arrivalSpeed="15.38" duration="58.00" routeLength="775.13" waitingTime="0.00" waitingCount="0" stopTime="0.00" timeLoss="7.73" rerouteNo="0" devices="tripinfo_57 routing_57 fcd_57" vType="DEFAULT_VEHTYPE" speedFactor="1.14" vaporized=""/>
    <tripinfo id="130" depart="65.00" departLane="E1E0_0" departPos="5.10" departSpeed="0.00" departDelay="0.00" arrival="96.00" arrivalLane="E1E0_0" arrivalPos="389.60" arrivalSpeed="14.13" duration="31.00" routeLength="384.50" waitingTime="0.00" waitingCount="0" stopTime="0.00" timeLoss="4.13" rerouteNo="1" devices="tripinfo_130 routing_130 fcd_130" vType="DEFAULT_VEHTYPE" speedFactor="1.03" vaporized=""/>
    <tripinfo id="127" depart="64.00" departLane="E4E3_0" departPos="5.10" departSpeed="0.00" departDelay="0.50" arrival="103.00" arrivalLane="E4E3_0" arrivalPos="389.60" arrivalSpeed="10.61" duration="39.00" routeLength="384.50" waitingTime="0.00" waitingCount="0" stopTime="0.00" timeLoss="5.12" rerouteNo="1" devices="tripinfo_127 routing_127 fcd_127" vType="DEFAULT_VEHTYPE" speedFactor="0.82" vaporized=""/>
    <tripinfo id="37" depart="19.00" departLane="D1C1_0" departPos="5.10" departSpeed="0.00" departDelay="0.50" arrival="104.00" arrivalLane="C0B0_0" arrivalPos="385.60" arrivalSpeed="15.13" duration="85.00" routeLength="1174.93" waitingTime="0.00" waitingCount="0" stopTime="0.00" timeLoss="12.10" rerouteNo="1" devices="tripinfo_37 routing_37 fcd_37" vType="DEFAULT_VEHTYPE" speedFactor="1.18" vaporized=""/>
    <tripinfo id="34" depart="17.00" departLane="B3B2_0" departPos="5.10" departSpeed="0.00" departDelay="0.00" arrival="123.00" arrivalLane="B2B1_0" arrivalPos="385.60" arrivalSpeed="12.60" duration="106.00" routeLength="780.50" waitingTime="37.00" waitingCount="1" stopTime="0.00" timeLoss="48.71" rerouteNo="0" devices="tripinfo_34 routing_34 fcd_34" vType="DEFAULT_VEHTYPE" speedFactor="0.99" vaporized=""/>
    <tripinfo id="6" depart="3.00" departLane="A1A0_0" departPos="5.10" departSpeed="0.00" departDelay="0.00" arrival="124.00" arrivalLane="B0C0_0" arrivalPos="385.60" arrivalSpeed="13.91" duration="121.00" routeLength="1181.84" waitingTime="21.00" waitingCount="1" stopTime="0.00" timeLoss="39.03" rerouteNo="1" devices="tripinfo_6 routing_6 fcd_6" vType="DEFAULT_VEHTYPE" speedFactor="1.05" vaporized=""/>
    <tripinfo id="21" depart="11.00" departLane="B1B2_0" departPos="5.10" departSpeed="0.00" departDelay="0.50" arrival="138.00" arrivalLane="B2C2_0" arrivalPos="385.60" arrivalSpeed="6.39" duration="127.00" routeLength="775.13" waitingTime="55.00" waitingCount="2" stopTime="0.00" timeLoss="71.08" rerouteNo="0" devices="tripinfo_21 routing_21 fcd_21" vType="DEFAULT_VEHTYPE" speedFactor="1.01" vaporized=""/>
    <tripinfo id="42" depart="21.00" departLane="C0B0_0" departPos="5.10" departSpeed="0.00" departDelay="0.00" arrival="138.00" arrivalLane="B1B0_0" arrivalPos="385.60" arrivalSpeed="4.80" duration="117.00" routeLength="1165.40" waitingTime="16.00" waitingCount="2" stopTime="0.00" timeLoss="38.74" rerouteNo="1" devices="tripinfo_42 routing_42 fcd_42" vType="DEFAULT_VEHTYPE" speedFactor="1.09" vaporized=""/>
    <tripinfo id="152" depart="76.00" departLane="A4A3_0" departPos="5.10" departSpeed="0.00" departDelay="0.00" arrival="147.00" arrivalLane="A3B3_0" arrivalPos="385.60" arrivalSpeed="11.22" duration="71.00" routeLength="784.30" waitingTime="0.00" waitingCount="0" stopTime="0.00" timeLoss="17.34" rerouteNo="0" devices="tripinfo_152 routing_152 fcd_152" vType="DEFAULT_VEHTYPE" speedFactor="1.07" vaporized=""/>
    <tripinfo id="102" depart="51.00" departLane="C2B2_0" departPos="5.10" departSpeed="0.00" departDelay="0.00" arrival="149.00" arrivalLane="B1B0_0" arrivalPos="385.60" arrivalSpeed="12.49" duration="98.00" routeLength="1180.30" waitingTime="0.00" waitingCount="0" stopTime="0.00" timeLoss="9.46" rerouteNo="1" devices="tripinfo_102 routing_102 fcd_102" vType="DEFAULT_VEHTYPE" speedFactor="0.97" vaporized=""/>
    <tripinfo id="245" depart="123.00" departLane="B1B0_0" departPos="5.10" departSpeed="0.00" departDelay="0.50" arrival="155.00" arrivalLane="B1B0_0" arrivalPos="385.60" arrivalSpeed="12.75" duration="32.00" routeLength="380.50" waitingTime="0.00" waitingCount="0" stopTime="0.00" timeLoss="4.25" rerouteNo="1" devices="tripinfo_245 routing_245 fcd_245" vType="DEFAULT_VEHTYPE" speedFactor="1.01" vaporized=""/>
    <tripinfo id="1" depart="1.00" departLane="B2B3_0" departPos="5.10" departSpeed="0.00" departDelay="0.50" arrival="159.00" arrivalLane="B1B0_0" arrivalPos="385.60" arrivalSpeed="12.66" duration="158.00" routeLength="1570.77" waitingTime="17.00" waitingCount="1" stopTime="0.00" timeLoss="35.60" rerouteNo="1" devices="tripinfo_1 routing_1 fcd_1" vType="DEFAULT_VEHTYPE" speedFactor="0.94" vaporized=""/>
    <tripinfo id="79" depart="40.00" departLane="B1B2_0" departPos="5.10" departSpeed="0.00" departDelay="0.50" arrival="160.00" arrivalLane="B1B0_0" arrivalPos="385.60" arrivalSpeed="14.32" duration="120.00" routeLength="1170.77" waitingTime="21.00" waitingCount="2" stopTime="0.00" timeLoss="41.15" rerouteNo="1" devices="tripinfo_79 routing_79 fcd_79" vType="DEFAULT_VEHTYPE" speedFactor="1.09" vaporized=""/>
    <tripinfo id="83" depart="42.00" departLane="B1C1_0" departPos="5.10" departSpeed="0.00" departDelay="0.50" arrival="168.00" arrivalLane="D1D0_0" arrivalPos="385.60" arrivalSpeed="13.29" duration="126.00" routeLength="1175.13" waitingTime="26.00" waitingCount="1" stopTime="0.00" timeLoss="37.98" rerouteNo="1" devices="tripinfo_83 routing_83 fcd_83" vType="DEFAULT_VEHTYPE" speedFactor="0.97" vaporized=""/>
    <tripinfo id="17" depart="9.00" departLane="B4C4_0" departPos="5.10" departSpeed="0.00" departDelay="0.50" arrival="171.00" arrivalLane="C3C4_0" arrivalPos="385.60" arrivalSpeed="5.04" duration="162.00" routeLength="1165.40" waitingTime="47.00" waitingCount="3" stopTime="0.00" timeLoss="70.95" rerouteNo="1" devices="tripinfo_17 routing_17 fcd_17" vType="DEFAULT_VEHTYPE" speedFactor="0.94" vaporized=""/>
    <tripinfo id="23" depart="12.00" departLane="A3A2_0" departPos="5.10" departSpeed="0.00" departDelay="0.50" arrival="183.00" arrivalLane="B2B3_0" arrivalPos="385.60" arrivalSpeed="5.49" duration="171.00" routeLength="1180.10" waitingTime="51.00" waitingCount="3" stopTime="0.00" timeLoss="73.97" rerouteNo="1" devices="tripinfo_23 routing_23 fcd_23" vType="DEFAULT_VEHTYPE" speedFactor="0.89" vaporized=""/>
    <tripinfo id="182" depart="91.00" departLane="B4C4_0" departPos="5.10" departSpeed="0.00" departDelay="0.00" arrival="183.00" arrivalLane="C4B4_0" arrivalPos="385.60" arrivalSpeed="5.70" duration="92.00" routeLength="770.77" waitingTime="22.00" waitingCount="2" stopTime="0.00" timeLoss="37.06" rerouteNo="0" devices="tripinfo_182 routing_182 fcd_182" vType="DEFAULT_VEHTYPE" speedFactor="1.03" vaporized=""/>
    <tripinfo id="199" depart="108.00" departLane="D1C1_0" departPos="5.10" departSpeed="0.00" departDelay="8.50" arrival="187.00" arrivalLane="C1D1_0" arrivalPos="385.60" arrivalSpeed="11.23" duration="79.00" routeLength="770.77" waitingTime="0.00" waitingCount="0" stopTime="0.00" timeLoss="10.57" rerouteNo="0" devices="tripinfo_199 routing_199 fcd_199" vType="DEFAULT_VEHTYPE" speedFactor="0.83" vaporized=""/>
    <tripinfo id="38" depart="19.00" departLane="E2E1_0" departPos="5.10" departSpeed="0.00" departDelay="0.00" arrival="191.00" arrivalLane="C1C2_0" arrivalPos="385.60" arrivalSpeed="6.50" duration="172.00" routeLength="1569.76" waitingTime="41.00" waitingCount="2" stopTime="0.00" timeLoss="68.37" rerouteNo="1" devices="tripinfo_38 routing_38 fcd_38" vType="DEFAULT_VEHTYPE" speedFactor="1.10" vaporized=""/>
    <tripinfo id="44" depart="22.00" departLane="A2B2_0" departPos="5.10" departSpeed="0.00" departDelay="0.00" arrival="192.00" arrivalLane="A1A2_0" arrivalPos="385.60" arrivalSpeed="8.31" duration="170.00" routeLength="1564.39" waitingTime="27.00" waitingCount="2" stopTime="0.00" timeLoss="60.16" rerouteNo="1" devices="tripinfo_44 routing_44 fcd_44" vType="DEFAULT_VEHTYPE" speedFactor="1.04" vaporized=""/>
    <tripinfo id="258" depart="130.00" departLane="B2A2_0" departPos="5.10" departSpeed="0.00" departDelay="1.00" arrival="193.00" arrivalLane="A2A3_0" arrivalPos="385.60" arrivalSpeed="13.21" duration="63.00" routeLength="775.13" waitingTime="0.00" waitingCount="0" stopTime="0.00" timeLoss="6.86" rerouteNo="0" devices="tripinfo_258 routing_258 fcd_258" vType="DEFAULT_VEHTYPE" speedFactor="1.01" vaporized=""/>
    <tripinfo id="20" depart="10.00" departLane="D2C2_0" departPos="5.10" departSpeed="0.00" departDelay="0.00" arrival="194.00" arrivalLane="A1A2_0" arrivalPos="385.60" arrivalSpeed="11.62" duration="184.00" routeLength="1969.56" waitingTime="8.00" waitingCount="1" stopTime="0.00" timeLoss="41.94" rerouteNo="1" devices="tripinfo_20 routing_20 fcd_20" vType="DEFAULT_VEHTYPE" speedFactor="1.02" vaporized=""/>
    <tripinfo id="123" depart="62.00" departLane="B1C1_0" departPos="5.10" departSpeed="0.00" departDelay="0.50" arrival="197.00" arrivalLane="C0B0_0" arrivalPos="385.60" arrivalSpeed="13.73" duration="135.00" routeLength="1169.76" waitingTime="39.00" waitingCount="1" stopTime="0.00" timeLoss="51.45" rerouteNo="1" devices="tripinfo_123 routing_123 fcd_123" vType="DEFAULT_VEHTYPE" speedFactor="1.02" vaporized=""/>
    <tripinfo id="2" depart="1.00" departLane="D2D3_0" departPos="5.10" departSpeed="0.00" departDelay="0.00" arrival="199.00" arrivalLane="D1D2_0" arrivalPos="385.60" arrivalSpeed="4.00" duration="198.00" routeLength="1561.04" waitingTime="52.00" waitingCount="3" stopTime="0.00" timeLoss="85.45" rerouteNo="1" devices="tripinfo_2 routing_2 fcd_2" vType="DEFAULT_VEHTYPE" speedFactor="1.01" vaporized=""/>
    <tripinfo id="11" depart="6.00" departLane="B3C3_0" departPos="5.10" departSpeed="0.00" departDelay="0.50" arrival="200.00" arrivalLane="A4B4_0" arrivalPos="389.60" arrivalSpeed="13.83" duration="194.00" routeLength="1961.58" waitingTime="31.00" waitingCount="2" stopTime="0.00" timeLoss="53.55" rerouteNo="1" devices="tripinfo_11 routing_11 fcd_11" vType="DEFAULT_VEHTYPE" speedFactor="1.03" vaporized=""/>
    <tripinfo id="106" depart="53.00" departLane="C1C2_0" departPos="5.10" departSpeed="0.00" departDelay="0.00" arrival="200.00" arrivalLane="C0D0_0" arrivalPos="385.60" arrivalSpeed="9.05" duration="147.00" routeLength="1570.56" waitingTime="4.00" waitingCount="2" stopTime="0.00" timeLoss="33.46" rerouteNo="1" devices="tripinfo_106 routing_106 fcd_106" vType="DEFAULT_VEHTYPE" speedFactor="1.01" vaporized=""/>
    <tripinfo id="78" depart="39.00" departLane="B3C3_0" departPos="5.10" departSpeed="0.00" departDelay="0.00" arrival="204.00" arrivalLane="C4C3_0" arrivalPos="385.60" arrivalSpeed="13.46" duration="165.00" routeLength="1170.57" waitingTime="58.00" waitingCount="2" stopTime="0.00" timeLoss="79.53" rerouteNo="1" devices="tripinfo_78 routing_78 fcd_78" vType="DEFAULT_VEHTYPE" speedFactor="1.01" vaporized=""/>
    <tripinfo id="131" depart="66.00" departLane="B4B3_0" departPos="5.10" departSpeed="0.00" departDelay="0.50" arrival="207.00" arrivalLane="A4B4_0" arrivalPos="389.60" arrivalSpeed="14.74" duration="141.00" routeLength="1565.94" waitingTime="9.00" waitingCount="1" stopTime="0.00" timeLoss="33.06" rerouteNo="1" devices="tripinfo_131 routing_131 fcd_131" vType="DEFAULT_VEHTYPE" speedFactor="1.07" vaporized=""/>
    <tripinfo id="16" depart="8.00" departLane="C3B3_0" departPos="5.10" departSpeed="0.00" departDelay="0.00" arrival="209.00" arrivalLane="E3E4_0" arrivalPos="389.60" arrivalSpeed="11.79" duration="201.00" routeLength="1974.56" waitingTime="15.00" waitingCount="1" stopTime="0.00" timeLoss="36.75" rerouteNo="1" devices="tripinfo_16 routing_16 fcd_16" vType="DEFAULT_VEHTYPE" speedFactor="0.88" vaporized=""/>
    <tripinfo id="117" depart="59.00" departLane="B1B2_0" departPos="5.10" departSpeed="0.00" departDelay="0.50" arrival="213.00" arrivalLane="A3A4_0" arrivalPos="389.60" arrivalSpeed="13.52" duration="154.00" routeLength="1578.93" waitingTime="9.00" waitingCount="3" stopTime="0.00" timeLoss="39.09" rerouteNo="1" devices="tripinfo_117 routing_117 fcd_117" vType="DEFAULT_VEHTYPE" speedFactor="1.00" vaporized=""/>
    <tripinfo id="110" depart="55.00" departLane="E3E4_0" departPos="5.10" departSpeed="0.00" departDelay="0.00" arrival="218.00" arrivalLane="C4B4_0" arrivalPos="385.60" arrivalSpeed="12.61" duration="163.00" routeLength="1581.84" waitingTime="18.00" waitingCount="1" stopTime="0.00" timeLoss="39.12" rerouteNo="1" devices="tripinfo_110 routing_110 fcd_110" vType="DEFAULT_VEHTYPE" speedFactor="0.93" vaporized=""/>
    <tripinfo id="101" depart="55.00" departLane="E0D0_0" departPos="5.10" departSpeed="0.00" departDelay="4.50" arrival="219.00" arrivalLane="B0A0_0" arrivalPos="389.60" arrivalSpeed="7.30" duration="164.00" routeLength="1588.50" waitingTime="13.00" waitingCount="1" stopTime="0.00" timeLoss="44.25" rerouteNo="1" devices="tripinfo_101 routing_101 fcd_101" vType="DEFAULT_VEHTYPE" speedFactor="0.96" vaporized=""/>
    <tripinfo id="313" depart="160.00" departLane="B0B1_0" departPos="5.10" departSpeed="0.00" departDelay="3.50" arrival="222.00" arrivalLane="B1B0_0" arrivalPos="385.60" arrivalSpeed="13.88" duration="62.00" routeLength="770.77" waitingTime="0.00" waitingCount="0" stopTime="0.00" timeLoss="9.39" rerouteNo="0" devices="tripinfo_313 routing_313 fcd_313" vType="DEFAULT_VEHTYPE" speedFactor="1.07" vaporized=""/>
    <tripinfo id="133" depart="67.00" departLane="C4D4_0" departPos="5.10" departSpeed="0.00" departDelay="0.50" arrival="223.00" arrivalLane="E4D4_0" arrivalPos="389.60" arrivalSpeed="13.47" duration="156.00" routeLength="1976.06" waitingTime="0.00" waitingCount="0" stopTime="0.00" timeLoss="16.31" rerouteNo="1" devices="tripinfo_133 routing_133 fcd_133" vType="DEFAULT_VEHTYPE" speedFactor="1.04" vaporized=""/>
    <tripinfo id="121" depart="63.00" departLane="C2D2_0" departPos="5.10" departSpeed="0.00" departDelay="2.50" arrival="226.00" arrivalLane="E2E3_0" arrivalPos="385.60" arrivalSpeed="5.15" duration="163.00" routeLength="1180.29" waitingTime="60.00" waitingCount="3" stopTime="0.00" timeLoss="84.86" rerouteNo="1" devices="tripinfo_121 routing_121 fcd_121" vType="DEFAULT_VEHTYPE" speedFactor="1.10" vaporized=""/>
    <tripinfo id="39" depart="20.00" departLane="B2B1_0" departPos="5.10" departSpeed="0.00" departDelay="0.50" arrival="228.00" arrivalLane="B1C1_0" arrivalPos="385.60" arrivalSpeed="4.88" duration="208.00" routeLength="780.30" waitingTime="113.00" waitingCount="5" stopTime="0.00" timeLoss="144.84" rerouteNo="0" devices="tripinfo_39 routing_39 fcd_39" vType="DEFAULT_VEHTYPE" speedFactor="0.90" vaporized=""/>
    <tripinfo id="86" depart="43.00" departLane="C1D1_0" departPos="5.10" departSpeed="0.00" departDelay="0.00" arrival="228.00" arrivalLane="D3D4_0" arrivalPos="385.60" arrivalSpeed="5.69" duration="185.00" routeLength="1580.30" waitingTime="48.00" waitingCount="3" stopTime="0.00" timeLoss="70.21" rerouteNo="1" devices="tripinfo_86 routing_86 fcd_86" vType="DEFAULT_VEHTYPE" speedFactor="1.00" vaporized=""/>
    <tripinfo id="94" depart="52.00" departLane="B0C0_0" departPos="5.10" departSpeed="0.00" departDelay="5.00" arrival="231.00" arrivalLane="C1C0_0" arrivalPos="385.60" arrivalSpeed="9.46" duration="179.00" routeLength="1170.57" waitingTime="63.00" waitingCount="3" stopTime="0.00" timeLoss="100.18" rerouteNo="1" devices="tripinfo_94 routing_94 fcd_94" vType="DEFAULT_VEHTYPE" speedFactor="1.09" vaporized=""/>
    <tripinfo id="111" depart="56.00" departLane="C3C2_0" departPos="5.10" departSpeed="0.00" departDelay="0.50" arrival="231.00" arrivalLane="D2E2_0" arrivalPos="385.60" arrivalSpeed="8.42" duration="175.00" routeLength="1180.30" waitingTime="53.00" waitingCount="3" stopTime="0.00" timeLoss="75.78" rerouteNo="1" devices="tripinfo_111 routing_111 fcd_111" vType="DEFAULT_VEHTYPE" speedFactor="0.87" vaporized=""/>
    <tripinfo id="76" depart="38.00" departLane="C1C0_0" departPos="5.10" departSpeed="0.00" departDelay="0.00" arrival="232.00" arrivalLane="C2D2_0" arrivalPos="385.60" arrivalSpeed="8.63" duration="194.00" routeLength="1565.40" waitingTime="51.00" waitingCount="2" stopTime="0.00" timeLoss="83.41" rerouteNo="1" devices="tripinfo_76 routing_76 fcd_76" vType="DEFAULT_VEHTYPE" speedFactor="1.03" vaporized=""/>
    <tripinfo id="32" depart="16.00" departLane="E0D0_0" departPos="5.10" departSpeed="0.00" departDelay="0.00" arrival="233.00" arrivalLane="D3D4_0" arrivalPos="385.60" arrivalSpeed="9.87" duration="217.00" routeLength="1979.13" waitingTime="27.00" waitingCount="3" stopTime="0.00" timeLoss="74.10" rerouteNo="1" devices="tripinfo_32 routing_32 fcd_32" vType="DEFAULT_VEHTYPE" speedFactor="1.01" vaporized=""/>
    <tripinfo id="88" depart="44.00" departLane="A2B2_0" departPos="5.10" departSpeed="0.00" departDelay="0.00" arrival="234.00" arrivalLane="C1B1_0" arrivalPos="385.60" arrivalSpeed="4.59" duration="190.00" routeLength="1569.76" waitingTime="48.00" waitingCount="3" stopTime="0.00" timeLoss="76.69" rerouteNo="1" devices="tripinfo_88 routing_88 fcd_88" vType="DEFAULT_VEHTYPE" speedFactor="1.01" vaporized=""/>
    <tripinfo id="339" depart="170.00" departLane="B1A1_0" departPos="5.10" departSpeed="0.00" departDelay="0.50" arrival="234.00" arrivalLane="B1A1_0" arrivalPos="385.60" arrivalSpeed="9.93" duration="64.00" routeLength="380.50" waitingTime="29.00" waitingCount="1" stopTime="0.00" timeLoss="39.95" rerouteNo="1" devices="tripinfo_339 routing_339 fcd_339" vType="DEFAULT_VEHTYPE" speedFactor="1.17" vaporized=""/>
    <tripinfo id="90" depart="45.00" departLane="D2D3_0" departPos="5.10" departSpeed="0.00" departDelay="0.00" arrival="235.00" arrivalLane="D1D0_0" arrivalPos="385.60" arrivalSpeed="8.15" duration="190.00" routeLength="1570.77" waitingTime="44.00" waitingCount="3" stopTime="0.00" timeLoss="77.90" rerouteNo="1" devices="tripinfo_90 routing_90 fcd_90" vType="DEFAULT_VEHTYPE" speedFactor="1.02" vaporized=""/>
    <tripinfo id="74" depart="37.00" departLane="B1A1_0" departPos="5.10" departSpeed="0.00" departDelay="0.00" arrival="236.00" arrivalLane="B3A3_0" arrivalPos="385.60" arrivalSpeed="7.69" duration="199.00" routeLength="1969.36" waitingTime="11.00" waitingCount="3" stopTime="0.00" timeLoss="47.22" rerouteNo="1" devices="tripinfo_74 routing_74 fcd_74" vType="DEFAULT_VEHTYPE" speedFactor="0.96" vaporized=""/>
    <tripinfo id="33" depart="17.00" departLane="B1B2_0" departPos="5.10" departSpeed="0.00" departDelay="0.50" arrival="237.00" arrivalLane="A1A0_0" arrivalPos="389.60" arrivalSpeed="16.23" duration="220.00" routeLength="1584.09" waitingTime="88.00" waitingCount="5" stopTime="0.00" timeLoss="121.33" rerouteNo="1" devices="tripinfo_33 routing_33 fcd_33" vType="DEFAULT_VEHTYPE" speedFactor="1.17" vaporized=""/>
    <tripinfo id="53" depart="27.00" departLane="A3A2_0" departPos="5.10" departSpeed="0.00" departDelay="0.50" arrival="237.00" arrivalLane="C1B1_0" arrivalPos="385.60" arrivalSpeed="8.19" duration="210.00" routeLength="1969.56" waitingTime="38.00" waitingCount="2" stopTime="0.00" timeLoss="78.67" rerouteNo="1" devices="tripinfo_53 routing_53 fcd_53" vType="DEFAULT_VEHTYPE" speedFactor="1.10" vaporized=""/>
    <tripinfo id="355" depart="178.00" departLane="D1E1_0" departPos="5.10" departSpeed="0.00" departDelay="0.50" arrival="237.00" arrivalLane="D1E1_0" arrivalPos="385.60" arrivalSpeed="9.66" duration="59.00" routeLength="380.50" waitingTime="21.00" waitingCount="1" stopTime="0.00" timeLoss="31.93" rerouteNo="1" devices="tripinfo_355 routing_355 fcd_355" vType="DEFAULT_VEHTYPE" speedFactor="1.03" vaporized=""/>
    <tripinfo id="51" depart="26.00" departLane="D1D2_0" departPos="5.10" departSpeed="0.00" departDelay="0.50" arrival="238.00" arrivalLane="C3B3_0" arrivalPos="385.60" arrivalSpeed="3.79" duration="212.00" routeLength="1580.30" waitingTime="81.00" waitingCount="3" stopTime="0.00" timeLoss="113.95" rerouteNo="1" devices="tripinfo_51 routing_51 fcd_51" vType="DEFAULT_VEHTYPE" speedFactor="1.17" vaporized=""/>
    <tripinfo id="140" depart="72.00" departLane="D2D1_0" departPos="5.10" departSpeed="0.00" departDelay="2.00" arrival="238.00" arrivalLane="B1A1_0" arrivalPos="385.60" arrivalSpeed="10.65" duration="166.00" routeLength="1575.13" waitingTime="26.00" waitingCount="2" stopTime="0.00" timeLoss="62.69" rerouteNo="1" devices="tripinfo_140 routing_140 fcd_140" vType="DEFAULT_VEHTYPE" speedFactor="1.11" vaporized=""/>
    <tripinfo id="205" depart="105.00" departLane="D4D3_0" departPos="5.10" departSpeed="0.00" departDelay="2.50" arrival="238.00" arrivalLane="D3C3_0" arrivalPos="385.60" arrivalSpeed="3.78" duration="133.00" routeLength="775.13" waitingTime="56.00" waitingCount="3" stopTime="0.00" timeLoss="77.76" rerouteNo="0" devices="tripinfo_205 routing_205 fcd_205" vType="DEFAULT_VEHTYPE" speedFactor="1.02" vaporized=""/>
    <tripinfo id="285" depart="146.00" departLane="D2C2_0" departPos="5.10" departSpeed="0.00" departDelay="3.50" arrival="239.00" arrivalLane="C1B1_0" arrivalPos="385.60" arrivalSpeed="13.51" duration="93.00" routeLength="1174.93" waitingTime="0.00" waitingCount="0" stopTime="0.00" timeLoss="9.95" rerouteNo="1" devices="tripinfo_285 routing_285 fcd_285" vType="DEFAULT_VEHTYPE" speedFactor="1.04" vaporized=""/>
    <tripinfo id="65" depart="33.00" departLane="B3A3_0" departPos="5.10" departSpeed="0.00" departDelay="0.50" arrival="243.00" arrivalLane="A1B1_0" arrivalPos="385.60" arrivalSpeed="11.05" duration="210.00" routeLength="1580.09" waitingTime="62.00" waitingCount="2" stopTime="0.00" timeLoss="78.61" rerouteNo="1" devices="tripinfo_65 routing_65 fcd_65" vType="DEFAULT_VEHTYPE" speedFactor="0.88" vaporized=""/>
    <tripinfo id="12" depart="6.00" departLane="E3E2_0" departPos="5.10" departSpeed="0.00" departDelay="0.00" arrival="244.00" arrivalLane="B3B4_0" arrivalPos="385.60" arrivalSpeed="13.77" duration="238.00" routeLength="2369.76" waitingTime="36.00" waitingCount="1" stopTime="0.00" timeLoss="72.81" rerouteNo="1" devices="tripinfo_12 routing_12 fcd_12" vType="DEFAULT_VEHTYPE" speedFactor="1.05" vaporized=""/>
    <tripinfo id="25" depart="13.00" departLane="B4B3_0" departPos="5.10" departSpeed="0.00" departDelay="0.50" arrival="246.00" arrivalLane="B1A1_0" arrivalPos="385.60" arrivalSpeed="9.30" duration="233.00" routeLength="1575.13" waitingTime="73.00" waitingCount="3" stopTime="0.00" timeLoss="101.34" rerouteNo="1" devices="tripinfo_25 routing_25 fcd_25" vType="DEFAULT_VEHTYPE" speedFactor="0.87" vaporized=""/>
    <tripinfo id="84" depart="42.00" departLane="B1B0_0" departPos="5.10" departSpeed="0.00" departDelay="0.00" arrival="247.00" arrivalLane="A3B3_0" arrivalPos="385.60" arrivalSpeed="15.74" duration="205.00" routeLength="2365.94" waitingTime="20.00" waitingCount="1" stopTime="0.00" timeLoss="54.83" rerouteNo="1" devices="tripinfo_84 routing_84 fcd_84" vType="DEFAULT_VEHTYPE" speedFactor="1.15" vaporized=""/>
    <tripinfo id="92" depart="46.00" departLane="C0C1_0" departPos="5.10" departSpeed="0.00" departDelay="0.00" arrival="249.00" arrivalLane="B3C3_0" arrivalPos="385.60" arrivalSpeed="10.69" duration="203.00" routeLength="1969.56" waitingTime="6.00" waitingCount="2" stopTime="0.00" timeLoss="29.64" rerouteNo="1" devices="tripinfo_92 routing_92 fcd_92" vType="DEFAULT_VEHTYPE" speedFactor="0.83" vaporized=""/>
    <tripinfo id="200" depart="100.00" departLane="C1C0_0" departPos="5.10" departSpeed="0.00" departDelay="0.00" arrival="251.00" arrivalLane="B1B0_0" arrivalPos="385.60" arrivalSpeed="12.38" duration="151.00" routeLength="1560.03" waitingTime="10.00" waitingCount="1" stopTime="0.00" timeLoss="29.83" rerouteNo="1" devices="tripinfo_200 routing_200 fcd_200" vType="DEFAULT_VEHTYPE" speedFactor="0.95" vaporized=""/>
    <tripinfo id="359" depart="181.00" departLane="B3B2_0" departPos="5.10" departSpeed="0.00" departDelay="1.50" arrival="254.00" arrivalLane="B2A2_0" arrivalPos="385.60" arrivalSpeed="11.76" duration="73.00" routeLength="775.13" waitingTime="0.00" waitingCount="0" stopTime="0.00" timeLoss="7.26" rerouteNo="0" devices="tripinfo_359 routing_359 fcd_359" vType="DEFAULT_VEHTYPE" speedFactor="0.86" vaporized=""/>
    <tripinfo id="99" depart="50.00" departLane="E4E3_0" departPos="5.10" departSpeed="0.00" departDelay="0.50" arrival="255.00" arrivalLane="D4E4_0" arrivalPos="389.60" arrivalSpeed="14.86" duration="205.00" routeLength="1572.39" waitingTime="59.00" waitingCount="3" stopTime="0.00" timeLoss="99.93" rerouteNo="1" devices="tripinfo_99 routing_99 fcd_99" vType="DEFAULT_VEHTYPE" speedFactor="1.10" vaporized=""/>
    <tripinfo id="85" depart="43.00" departLane="E2E3_0" departPos="5.10" departSpeed="0.00" departDelay="0.50" arrival="256.00" arrivalLane="C3D3_0" arrivalPos="385.60" arrivalSpeed="5.23" duration="213.00" routeLength="1570.57" waitingTime="58.00" waitingCount="5" stopTime="0.00" timeLoss="94.85" rerouteNo="1" devices="tripinfo_85 routing_85 fcd_85" vType="DEFAULT_VEHTYPE" speedFactor="0.98" vaporized=""/>
    <tripinfo id="440" depart="221.00" departLane="B2A2_0" departPos="5.10" departSpeed="0.00" departDelay="1.00" arrival="256.00" arrivalLane="B2A2_0" arrivalPos="385.60" arrivalSpeed="11.52" duration="35.00" routeLength="380.50" waitingTime="0.00" waitingCount="0" stopTime="0.00" timeLoss="3.94" rerouteNo="1" devices="tripinfo_440 routing_440 fcd_440" vType="DEFAULT_VEHTYPE" speedFactor="0.89" vaporized=""/>
    <tripinfo id="48" depart="25.00" departLane="E4E3_0" departPos="5.10" departSpeed="0.00" departDelay="1.00" arrival="259.00" arrivalLane="C3B3_0" arrivalPos="385.60" arrivalSpeed="9.02" duration="234.00" routeLength="1579.13" waitingTime="59.00" waitingCount="4" stopTime="0.00" timeLoss="102.82" rerouteNo="1" devices="tripinfo_48 routing_48 fcd_48" vType="DEFAULT_VEHTYPE" speedFactor="0.88" vaporized=""/>
    <tripinfo id="103" depart="52.00" departLane="C0C1_0" departPos="5.10" departSpeed="0.00" departDelay="0.50" arrival="259.00" arrivalLane="A1B1_0" arrivalPos="385.60" arrivalSpeed="12.16" duration="207.00" routeLength="1570.57" waitingTime="58.00" waitingCount="4" stopTime="0.00" timeLoss="86.39" rerouteNo="1" devices="tripinfo_103 routing_103 fcd_103" vType="DEFAULT_VEHTYPE" speedFactor="0.95" vaporized=""/>
    <tripinfo id="109" depart="55.00" departLane="A4B4_0" departPos="5.10" departSpeed="0.00" departDelay="0.50" arrival="259.00" arrivalLane="B2C2_0" arrivalPos="385.60" arrivalSpeed="9.14" duration="204.00" routeLength="1578.93" waitingTime="51.00" waitingCount="4" stopTime="0.00" timeLoss="83.48" rerouteNo="1" devices="tripinfo_109 routing_109 fcd_109" vType="DEFAULT_VEHTYPE" speedFactor="0.96" vaporized=""/>
    <tripinfo id="128" depart="66.00" departLane="A2A1_0" departPos="5.10" departSpeed="0.00" departDelay="2.00" arrival="259.00" arrivalLane="B1B0_0" arrivalPos="385.60" arrivalSpeed="14.66" duration="193.00" routeLength="1174.93" waitingTime="83.00" waitingCount="3" stopTime="0.00" timeLoss="115.71" rerouteNo="1" devices="tripinfo_128 routing_128 fcd_128" vType="DEFAULT_VEHTYPE" speedFactor="1.12" vaporized=""/>
    <tripinfo id="137" depart="69.00" departLane="A3B3_0" departPos="5.10" departSpeed="0.00" departDelay="0.50" arrival="259.00" arrivalLane="A3A4_0" arrivalPos="389.60" arrivalSpeed="13.86" duration="190.00" routeLength="1169.40" waitingTime="84.00" waitingCount="3" stopTime="0.00" timeLoss="105.64" rerouteNo="1" devices="tripinfo_137 routing_137 fcd_137" vType="DEFAULT_VEHTYPE" speedFactor="1.02" vaporized=""/>
    <tripinfo id="186" depart="93.00" departLane="D2E2_0" departPos="5.10" departSpeed="0.00" departDelay="0.00" arrival="260.00" arrivalLane="D1D0_0" arrivalPos="385.60" arrivalSpeed="13.94" duration="167.00" routeLength="1569.56" waitingTime="33.00" waitingCount="3" stopTime="0.00" timeLoss="59.54" rerouteNo="1" devices="tripinfo_186 routing_186 fcd_186" vType="DEFAULT_VEHTYPE" speedFactor="1.08" vaporized=""/>
    <tripinfo id="61" depart="31.00" departLane="D3D4_0" departPos="5.10" departSpeed="0.00" departDelay="0.50" arrival="261.00" arrivalLane="C3B3_0" arrivalPos="385.60" arrivalSpeed="8.14" duration="230.00" routeLength="1574.72" waitingTime="70.00" waitingCount="4" stopTime="0.00" timeLoss="127.03" rerouteNo="1" devices="tripinfo_61 routing_61 fcd_61" vType="DEFAULT_VEHTYPE" speedFactor="1.12" vaporized=""/>